    1C
    1UAxisymmetric FEA of piston crown (30 MPa pressure)                
    1UUSER                                                              
    1UDATE              13.february.2026                                
    1UTIME              01:24:17                                        
    1UHOST                                                              
    1UPGM               CalculiX                                        
    1UVERSION           Version 2.21                             
    1UCOMPILETIME       Sat Jul 29 10:52:01 CEST 2023                    
    1UDIR                                                               
    1UDBN                                                               
    1UMAT    1STEEL                                                     
    2C                            66                                     1
 -1         1 0.00000E+00 0.00000E+00 0.00000E+00
 -1         2 4.72500E+00 0.00000E+00 2.89323E-16
 -1         3 9.45000E+00 0.00000E+00 5.78646E-16
 -1         4 1.41750E+01 0.00000E+00 8.67968E-16
 -1         5 1.89000E+01 0.00000E+00 1.15729E-15
 -1         6 2.36250E+01 0.00000E+00 1.44661E-15
 -1         7 2.83500E+01 0.00000E+00 1.73594E-15
 -1         8 3.30750E+01 0.00000E+00 2.02526E-15
 -1         9 3.78000E+01 0.00000E+00 2.31458E-15
 -1        10 4.25250E+01 0.00000E+00 2.60391E-15
 -1        11 4.72500E+01 0.00000E+00 2.89323E-15
 -1        12 0.00000E+00 2.45880E+00 0.00000E+00
 -1        13 4.72500E+00 2.45880E+00 2.89323E-16
 -1        14 9.45000E+00 2.45880E+00 5.78646E-16
 -1        15 1.41750E+01 2.45880E+00 8.67968E-16
 -1        16 1.89000E+01 2.45880E+00 1.15729E-15
 -1        17 2.36250E+01 2.45880E+00 1.44661E-15
 -1        18 2.83500E+01 2.45880E+00 1.73594E-15
 -1        19 3.30750E+01 2.45880E+00 2.02526E-15
 -1        20 3.78000E+01 2.45880E+00 2.31458E-15
 -1        21 4.25250E+01 2.45880E+00 2.60391E-15
 -1        22 4.72500E+01 2.45880E+00 2.89323E-15
 -1        23 0.00000E+00 4.91760E+00 0.00000E+00
 -1        24 4.72500E+00 4.91760E+00 2.89323E-16
 -1        25 9.45000E+00 4.91760E+00 5.78646E-16
 -1        26 1.41750E+01 4.91760E+00 8.67968E-16
 -1        27 1.89000E+01 4.91760E+00 1.15729E-15
 -1        28 2.36250E+01 4.91760E+00 1.44661E-15
 -1        29 2.83500E+01 4.91760E+00 1.73594E-15
 -1        30 3.30750E+01 4.91760E+00 2.02526E-15
 -1        31 3.78000E+01 4.91760E+00 2.31458E-15
 -1        32 4.25250E+01 4.91760E+00 2.60391E-15
 -1        33 4.72500E+01 4.91760E+00 2.89323E-15
 -1        34 0.00000E+00 7.37640E+00 0.00000E+00
 -1        35 4.72500E+00 7.37640E+00 2.89323E-16
 -1        36 9.45000E+00 7.37640E+00 5.78646E-16
 -1        37 1.41750E+01 7.37640E+00 8.67968E-16
 -1        38 1.89000E+01 7.37640E+00 1.15729E-15
 -1        39 2.36250E+01 7.37640E+00 1.44661E-15
 -1        40 2.83500E+01 7.37640E+00 1.73594E-15
 -1        41 3.30750E+01 7.37640E+00 2.02526E-15
 -1        42 3.78000E+01 7.37640E+00 2.31458E-15
 -1        43 4.25250E+01 7.37640E+00 2.60391E-15
 -1        44 4.72500E+01 7.37640E+00 2.89323E-15
 -1        45 0.00000E+00 9.83520E+00 0.00000E+00
 -1        46 4.72500E+00 9.83520E+00 2.89323E-16
 -1        47 9.45000E+00 9.83520E+00 5.78646E-16
 -1        48 1.41750E+01 9.83520E+00 8.67968E-16
 -1        49 1.89000E+01 9.83520E+00 1.15729E-15
 -1        50 2.36250E+01 9.83520E+00 1.44661E-15
 -1        51 2.83500E+01 9.83520E+00 1.73594E-15
 -1        52 3.30750E+01 9.83520E+00 2.02526E-15
 -1        53 3.78000E+01 9.83520E+00 2.31458E-15
 -1        54 4.25250E+01 9.83520E+00 2.60391E-15
 -1        55 4.72500E+01 9.83520E+00 2.89323E-15
 -1        56 0.00000E+00 1.22940E+01 0.00000E+00
 -1        57 4.72500E+00 1.22940E+01 2.89323E-16
 -1        58 9.45000E+00 1.22940E+01 5.78646E-16
 -1        59 1.41750E+01 1.22940E+01 8.67968E-16
 -1        60 1.89000E+01 1.22940E+01 1.15729E-15
 -1        61 2.36250E+01 1.22940E+01 1.44661E-15
 -1        62 2.83500E+01 1.22940E+01 1.73594E-15
 -1        63 3.30750E+01 1.22940E+01 2.02526E-15
 -1        64 3.78000E+01 1.22940E+01 2.31458E-15
 -1        65 4.25250E+01 1.22940E+01 2.60391E-15
 -1        66 4.72500E+01 1.22940E+01 2.89323E-15
 -3
    3C                            50                                     1
 -1         1    9    0    1
 -2         1         2        13        12
 -1         2    9    0    1
 -2         2         3        14        13
 -1         3    9    0    1
 -2         3         4        15        14
 -1         4    9    0    1
 -2         4         5        16        15
 -1         5    9    0    1
 -2         5         6        17        16
 -1         6    9    0    1
 -2         6         7        18        17
 -1         7    9    0    1
 -2         7         8        19        18
 -1         8    9    0    1
 -2         8         9        20        19
 -1         9    9    0    1
 -2         9        10        21        20
 -1        10    9    0    1
 -2        10        11        22        21
 -1        11    9    0    1
 -2        12        13        24        23
 -1        12    9    0    1
 -2        13        14        25        24
 -1        13    9    0    1
 -2        14        15        26        25
 -1        14    9    0    1
 -2        15        16        27        26
 -1        15    9    0    1
 -2        16        17        28        27
 -1        16    9    0    1
 -2        17        18        29        28
 -1        17    9    0    1
 -2        18        19        30        29
 -1        18    9    0    1
 -2        19        20        31        30
 -1        19    9    0    1
 -2        20        21        32        31
 -1        20    9    0    1
 -2        21        22        33        32
 -1        21    9    0    1
 -2        23        24        35        34
 -1        22    9    0    1
 -2        24        25        36        35
 -1        23    9    0    1
 -2        25        26        37        36
 -1        24    9    0    1
 -2        26        27        38        37
 -1        25    9    0    1
 -2        27        28        39        38
 -1        26    9    0    1
 -2        28        29        40        39
 -1        27    9    0    1
 -2        29        30        41        40
 -1        28    9    0    1
 -2        30        31        42        41
 -1        29    9    0    1
 -2        31        32        43        42
 -1        30    9    0    1
 -2        32        33        44        43
 -1        31    9    0    1
 -2        34        35        46        45
 -1        32    9    0    1
 -2        35        36        47        46
 -1        33    9    0    1
 -2        36        37        48        47
 -1        34    9    0    1
 -2        37        38        49        48
 -1        35    9    0    1
 -2        38        39        50        49
 -1        36    9    0    1
 -2        39        40        51        50
 -1        37    9    0    1
 -2        40        41        52        51
 -1        38    9    0    1
 -2        41        42        53        52
 -1        39    9    0    1
 -2        42        43        54        53
 -1        40    9    0    1
 -2        43        44        55        54
 -1        41    9    0    1
 -2        45        46        57        56
 -1        42    9    0    1
 -2        46        47        58        57
 -1        43    9    0    1
 -2        47        48        59        58
 -1        44    9    0    1
 -2        48        49        60        59
 -1        45    9    0    1
 -2        49        50        61        60
 -1        46    9    0    1
 -2        50        51        62        61
 -1        47    9    0    1
 -2        51        52        63        62
 -1        48    9    0    1
 -2        52        53        64        63
 -1        49    9    0    1
 -2        53        54        65        64
 -1        50    9    0    1
 -2        54        55        66        65
 -3
    1PSTEP                         1           1           1          
  100CL  101 1.000000000          66                     0    1           1
 -4  DISP        4    1
 -5  D1          1    2    1    0
 -5  D2          1    2    2    0
 -5  D3          1    2    3    0
 -5  ALL         1    2    0    0    1ALL
 -1         1 0.00000E+00 0.00000E+00 0.00000E+00
 -1         2 1.95720E-04 0.00000E+00 1.19844E-20
 -1         3 3.91440E-04 0.00000E+00 2.39688E-20
 -1         4 5.87161E-04 0.00000E+00 3.59532E-20
 -1         5 7.82881E-04 0.00000E+00 4.79376E-20
 -1         6 9.78601E-04 0.00000E+00 5.99220E-20
 -1         7 1.17432E-03 0.00000E+00 7.19064E-20
 -1         8 1.37004E-03 0.00000E+00 8.38908E-20
 -1         9 1.56576E-03 0.00000E+00 9.58752E-20
 -1        10 1.76148E-03 0.00000E+00 1.07860E-19
 -1        11 1.95720E-03 0.00000E+00 1.19844E-19
 -1        12 0.00000E+00-3.51257E-04 0.00000E+00
 -1        13 1.95720E-04-3.51257E-04 1.19844E-20
 -1        14 3.91440E-04-3.51257E-04 2.39688E-20
 -1        15 5.87161E-04-3.51257E-04 3.59532E-20
 -1        16 7.82881E-04-3.51257E-04 4.79376E-20
 -1        17 9.78601E-04-3.51257E-04 5.99220E-20
 -1        18 1.17432E-03-3.51257E-04 7.19064E-20
 -1        19 1.37004E-03-3.51257E-04 8.38908E-20
 -1        20 1.56576E-03-3.51257E-04 9.58752E-20
 -1        21 1.76148E-03-3.51257E-04 1.07860E-19
 -1        22 1.95720E-03-3.51257E-04 1.19844E-19
 -1        23 0.00000E+00-7.02514E-04 0.00000E+00
 -1        24 1.95720E-04-7.02514E-04 1.19844E-20
 -1        25 3.91440E-04-7.02514E-04 2.39688E-20
 -1        26 5.87161E-04-7.02514E-04 3.59532E-20
 -1        27 7.82881E-04-7.02514E-04 4.79376E-20
 -1        28 9.78601E-04-7.02514E-04 5.99220E-20
 -1        29 1.17432E-03-7.02514E-04 7.19064E-20
 -1        30 1.37004E-03-7.02514E-04 8.38908E-20
 -1        31 1.56576E-03-7.02514E-04 9.58752E-20
 -1        32 1.76148E-03-7.02514E-04 1.07860E-19
 -1        33 1.95720E-03-7.02514E-04 1.19844E-19
 -1        34 0.00000E+00-1.05377E-03 0.00000E+00
 -1        35 1.95720E-04-1.05377E-03 1.19844E-20
 -1        36 3.91440E-04-1.05377E-03 2.39688E-20
 -1        37 5.87161E-04-1.05377E-03 3.59532E-20
 -1        38 7.82881E-04-1.05377E-03 4.79376E-20
 -1        39 9.78601E-04-1.05377E-03 5.99220E-20
 -1        40 1.17432E-03-1.05377E-03 7.19064E-20
 -1        41 1.37004E-03-1.05377E-03 8.38908E-20
 -1        42 1.56576E-03-1.05377E-03 9.58752E-20
 -1        43 1.76148E-03-1.05377E-03 1.07860E-19
 -1        44 1.95720E-03-1.05377E-03 1.19844E-19
 -1        45 0.00000E+00-1.40503E-03 0.00000E+00
 -1        46 1.95720E-04-1.40503E-03 1.19844E-20
 -1        47 3.91440E-04-1.40503E-03 2.39688E-20
 -1        48 5.87161E-04-1.40503E-03 3.59532E-20
 -1        49 7.82881E-04-1.40503E-03 4.79376E-20
 -1        50 9.78601E-04-1.40503E-03 5.99220E-20
 -1        51 1.17432E-03-1.40503E-03 7.19064E-20
 -1        52 1.37004E-03-1.40503E-03 8.38908E-20
 -1        53 1.56576E-03-1.40503E-03 9.58752E-20
 -1        54 1.76148E-03-1.40503E-03 1.07860E-19
 -1        55 1.95720E-03-1.40503E-03 1.19844E-19
 -1        56 0.00000E+00-1.75629E-03 0.00000E+00
 -1        57 1.95720E-04-1.75629E-03 1.19844E-20
 -1        58 3.91440E-04-1.75629E-03 2.39688E-20
 -1        59 5.87161E-04-1.75629E-03 3.59532E-20
 -1        60 7.82881E-04-1.75629E-03 4.79376E-20
 -1        61 9.78601E-04-1.75629E-03 5.99220E-20
 -1        62 1.17432E-03-1.75629E-03 7.19064E-20
 -1        63 1.37004E-03-1.75629E-03 8.38908E-20
 -1        64 1.56576E-03-1.75629E-03 9.58752E-20
 -1        65 1.76148E-03-1.75629E-03 1.07860E-19
 -1        66 1.95720E-03-1.75629E-03 1.19844E-19
 -3
    1PSTEP                         2           1           1          
  100CL  101 1.000000000          66                     0    1           1
 -4  STRESS      6    1
 -5  SXX         1    4    1    1
 -5  SYY         1    4    2    2
 -5  SZZ         1    4    3    3
 -5  SXY         1    4    1    2
 -5  SYZ         1    4    2    3
 -5  SZX         1    4    3    1
 -1         1-7.26409E-12-2.99988E+01-7.26409E-12-5.01624E-16-1.48521E-14 6.03222E-15
 -1         2 1.10547E-12-2.99988E+01 2.61356E-12-1.61158E-13-6.21549E-15-7.06481E-15
 -1         3-1.07254E-12-2.99988E+01 4.67965E-13-1.61393E-13-2.26161E-15-5.93510E-15
 -1         4-7.12152E-13-2.99988E+01 1.89084E-13-6.37008E-14-1.59626E-15-9.66260E-15
 -1         5-3.99351E-13-2.99988E+01 1.09214E-13-4.14215E-14-2.85138E-15 9.21719E-15
 -1         6-2.69590E-13-2.99988E+01 3.00623E-14-2.70171E-15-1.58200E-15 2.39970E-15
 -1         7-1.20518E-13-2.99988E+01 1.39092E-14 2.26557E-14-1.43695E-15 1.89167E-15
 -1         8 7.34335E-15-2.99988E+01 2.85160E-14 4.63952E-15 1.21712E-15-6.41951E-15
 -1         9-1.08913E-14-2.99988E+01 9.36536E-15 3.92682E-15-9.21548E-16 4.66403E-15
 -1        10 1.37508E-14-2.99988E+01 1.10822E-14 5.46238E-14-2.75289E-16 1.84040E-15
 -1        11 1.13340E-13-2.99988E+01 6.01078E-14-5.20582E-15-5.60084E-16-3.29799E-14
 -1        12-6.88915E-12-2.99988E+01-6.88937E-12 4.23087E-12 1.13678E-13-2.27086E-15
 -1        13 1.04889E-12-2.99988E+01 2.48156E-12 2.02576E-12-5.87688E-15 1.13591E-14
 -1        14-1.06094E-12-2.99988E+01 3.53154E-13 1.49404E-13 6.66557E-15-1.27197E-14
 -1        15-5.97204E-13-2.99988E+01 2.19809E-13-3.96077E-14 8.95524E-16-1.62865E-14
 -1        16-3.71885E-13-2.99988E+01 8.59861E-14-5.86776E-14 3.45937E-15 6.84170E-15
 -1        17-2.24759E-13-2.99988E+01 4.77141E-14-2.14646E-14 6.41163E-16-1.74540E-14
 -1        18-1.25261E-13-2.99988E+01 6.47121E-15 1.54228E-14 8.55970E-16 6.49017E-15
 -1        19-8.73686E-15-2.99988E+01 2.65570E-14 1.67791E-14-3.01392E-15 1.27258E-14
 -1        20 4.33124E-14-2.99988E+01 3.16004E-14 3.20248E-15 2.92542E-15-3.83568E-15
 -1        21 1.18361E-14-2.99988E+01 1.44546E-14 3.48748E-14-9.56838E-16 1.88172E-14
 -1        22 4.66745E-14-2.99988E+01 4.95293E-14 1.05580E-14 4.67076E-16-1.81611E-14
 -1        23-4.28761E-12-2.99988E+01-4.28761E-12 8.01212E-12-2.93005E-13-5.81386E-15
 -1        24 3.82598E-13-2.99988E+01 1.35315E-12 3.73074E-12 4.68764E-14 6.93076E-15
 -1        25-6.69919E-13-2.99988E+01 3.61615E-13 2.86910E-13-2.05390E-16-6.00412E-15
 -1        26-4.12343E-13-2.99988E+01 2.22063E-13-8.83660E-14 3.49847E-16-4.47584E-15
 -1        27-2.67959E-13-2.99988E+01 7.55741E-14-9.55165E-14 1.61673E-15 5.70850E-15
 -1        28-1.51474E-13-2.99988E+01 4.44191E-14-4.45108E-14 1.37918E-15-7.09223E-15
 -1        29-6.18150E-14-2.99988E+01 3.72090E-14-6.99890E-15 1.95516E-15 1.54369E-14
 -1        30-3.38126E-14-2.99988E+01 2.98817E-14 1.64707E-14 4.96423E-16-2.28482E-15
 -1        31 2.61725E-14-2.99988E+01 2.92413E-14 1.05353E-14 6.30081E-15 2.08658E-15
 -1        32 1.33522E-14-2.99988E+01 1.08148E-14 2.81802E-15-1.75712E-15 3.61525E-15
 -1        33 8.81592E-14-2.99988E+01 8.24774E-14 3.79632E-14 3.56356E-15 1.36755E-14
 -1        34-3.88809E-13-2.99988E+01-3.89697E-13 9.13541E-12-1.42352E-13 1.33513E-14
 -1        35-5.65455E-13-2.99988E+01-3.10440E-13 4.46418E-12 2.52904E-14 5.07364E-16
 -1        36-2.91069E-14-2.99988E+01 4.05682E-13 3.60438E-13-2.74702E-15-7.89682E-15
 -1        37-1.86600E-13-2.99988E+01 1.22463E-13-1.19905E-13 3.46871E-14-1.53681E-14
 -1        38-1.92874E-14-2.99988E+01 1.41821E-13-1.35982E-13 3.77094E-15-6.27270E-15
 -1        39-1.09120E-13-2.99988E+01 2.20337E-14-4.74477E-14-1.49307E-14 7.42333E-15
 -1        40-2.28187E-14-2.99988E+01 5.22276E-14-2.72611E-14-3.36273E-15 6.52271E-15
 -1        41 1.37787E-15-2.99988E+01 3.68997E-14-2.35105E-14-2.63521E-15 2.81758E-15
 -1        42 7.73943E-15-2.99988E+01 4.70576E-14 3.94622E-15-4.12431E-15 8.88888E-15
 -1        43-1.72765E-14-2.99988E+01-2.73930E-15 2.10047E-14-1.61975E-16 1.40078E-14
 -1        44 1.07448E-13-2.99988E+01 7.89887E-14 3.41196E-14 3.12090E-15-2.27083E-14
 -1        45-1.24314E-12-2.99988E+01-1.24163E-12 8.23833E-12 8.90331E-13-5.11750E-15
 -1        46-8.87583E-13-2.99988E+01-1.08534E-12 3.38044E-12-1.24565E-13 1.27957E-14
 -1        47 1.69762E-13-2.99988E+01-1.58648E-13 3.44747E-13-4.57255E-14-7.42479E-15
 -1        48 3.49031E-13-2.99988E+01 1.34010E-13-9.15390E-14 2.50760E-14-4.50127E-15
 -1        49 2.21109E-13-2.99988E+01 1.72471E-13-9.30725E-14-1.01145E-14 5.50775E-15
 -1        50-8.66511E-15-2.99988E+01 5.04542E-14-4.27832E-14 2.62257E-14-2.94262E-15
 -1        51 5.14804E-15-2.99988E+01 6.42869E-14-1.56545E-14-2.09054E-15 6.54063E-15
 -1        52 1.01665E-14-2.99988E+01 4.06390E-14-2.36737E-14 2.24885E-15 1.19068E-14
 -1        53 4.45495E-14-2.99988E+01 6.36188E-14-6.80616E-15-1.19839E-15 3.51998E-15
 -1        54-4.50976E-15-2.99988E+01 3.35851E-14 2.91196E-14-1.15312E-15 1.24961E-15
 -1        55-1.63737E-15-2.99988E+01 1.92021E-14 4.11452E-14-6.49595E-15 1.91823E-15
 -1        56-9.59697E-12-2.99988E+01-9.59608E-12 9.12339E-12-6.75794E-13 6.31409E-15
 -1        57-2.81091E-12-2.99988E+01-5.17570E-12 2.79965E-12-3.18076E-14 7.06085E-15
 -1        58 1.95106E-12-2.99988E+01-7.69087E-14 2.18875E-13 9.23769E-14 1.41339E-14
 -1        59 1.12155E-12-2.99988E+01 3.09425E-13-3.15996E-14-7.36265E-14 1.32159E-14
 -1        60 4.44640E-13-2.99988E+01 2.45154E-13-2.29309E-14-5.64146E-15-1.55474E-14
 -1        61 3.76312E-14-2.99988E+01 6.62620E-14-3.21945E-14 1.60472E-14-8.19022E-15
 -1        62 1.35078E-14-2.99988E+01 7.50754E-14-2.35148E-15-1.66990E-14 2.21904E-14
 -1        63 2.57559E-14-2.99988E+01 4.67663E-14-3.00780E-14-8.47325E-16 4.98754E-16
 -1        64 6.24989E-14-2.99988E+01 7.55754E-14 1.09734E-14-2.14638E-14-5.81803E-15
 -1        65 6.90186E-16-2.99988E+01 4.62270E-14 2.02953E-14 2.46269E-15 1.46344E-14
 -1        66 8.72191E-17-2.99988E+01 2.91344E-14 4.75019E-14-2.12845E-14-6.56311E-15
 -3
    1PSTEP                         3           1           1          
  100CL  101 1.000000000          66                     0    1           1
 -4  TOSTRAIN    6    1
 -5  EXX         1    4    1    1
 -5  EYY         1    4    2    2
 -5  EZZ         1    4    3    3
 -5  EXY         1    4    1    2
 -5  EYZ         1    4    2    3
 -5  EZX         1    4    3    1
 -1         1 4.14269E-05-1.42851E-04 4.14269E-05-3.08140E-21-9.12343E-20 3.70550E-20
 -1         2 4.14269E-05-1.42851E-04 4.14269E-05-9.89972E-19-3.81808E-20-4.33981E-20
 -1         3 4.14269E-05-1.42851E-04 4.14269E-05-9.91412E-19-1.38928E-20-3.64585E-20
 -1         4 4.14269E-05-1.42851E-04 4.14269E-05-3.91305E-19-9.80560E-21-5.93560E-20
 -1         5 4.14269E-05-1.42851E-04 4.14269E-05-2.54447E-19-1.75156E-20 5.66199E-20
 -1         6 4.14269E-05-1.42851E-04 4.14269E-05-1.65962E-20-9.71801E-21 1.47410E-20
 -1         7 4.14269E-05-1.42851E-04 4.14269E-05 1.39171E-19-8.82696E-21 1.16203E-20
 -1         8 4.14269E-05-1.42851E-04 4.14269E-05 2.84999E-20 7.47660E-21-3.94342E-20
 -1         9 4.14269E-05-1.42851E-04 4.14269E-05 2.41219E-20-5.66094E-21 2.86504E-20
 -1        10 4.14269E-05-1.42851E-04 4.14269E-05 3.35546E-19-1.69106E-21 1.13053E-20
 -1        11 4.14269E-05-1.42851E-04 4.14269E-05-3.19786E-20-3.44051E-21-2.02591E-19
 -1        12 4.14269E-05-1.42851E-04 4.14269E-05 2.59896E-17 6.98307E-19-1.39496E-20
 -1        13 4.14269E-05-1.42851E-04 4.14269E-05 1.24439E-17-3.61008E-20 6.97772E-20
 -1        14 4.14269E-05-1.42851E-04 4.14269E-05 9.17765E-19 4.09456E-20-7.81352E-20
 -1        15 4.14269E-05-1.42851E-04 4.14269E-05-2.43304E-19 5.50108E-21-1.00046E-19
 -1        16 4.14269E-05-1.42851E-04 4.14269E-05-3.60448E-19 2.12504E-20 4.20276E-20
 -1        17 4.14269E-05-1.42851E-04 4.14269E-05-1.31854E-19 3.93857E-21-1.07218E-19
 -1        18 4.14269E-05-1.42851E-04 4.14269E-05 9.47399E-20 5.25810E-21 3.98682E-20
 -1        19 4.14269E-05-1.42851E-04 4.14269E-05 1.03072E-19-1.85141E-20 7.81726E-20
 -1        20 4.14269E-05-1.42851E-04 4.14269E-05 1.96724E-20 1.79705E-20-2.35620E-20
 -1        21 4.14269E-05-1.42851E-04 4.14269E-05 2.14231E-19-5.87772E-21 1.15591E-19
 -1        22 4.14269E-05-1.42851E-04 4.14269E-05 6.48562E-20 2.86918E-21-1.11561E-19
 -1        23 4.14269E-05-1.42851E-04 4.14269E-05 4.92173E-17-1.79989E-18-3.57137E-20
 -1        24 4.14269E-05-1.42851E-04 4.14269E-05 2.29174E-17 2.87955E-19 4.25747E-20
 -1        25 4.14269E-05-1.42851E-04 4.14269E-05 1.76245E-18-1.26168E-21-3.68825E-20
 -1        26 4.14269E-05-1.42851E-04 4.14269E-05-5.42820E-19 2.14906E-21-2.74945E-20
 -1        27 4.14269E-05-1.42851E-04 4.14269E-05-5.86744E-19 9.93131E-21 3.50665E-20
 -1        28 4.14269E-05-1.42851E-04 4.14269E-05-2.73424E-19 8.47210E-21-4.35665E-20
 -1        29 4.14269E-05-1.42851E-04 4.14269E-05-4.29932E-20 1.20103E-20 9.48270E-20
 -1        30 4.14269E-05-1.42851E-04 4.14269E-05 1.01177E-19 3.04946E-21-1.40353E-20
 -1        31 4.14269E-05-1.42851E-04 4.14269E-05 6.47166E-20 3.87050E-20 1.28176E-20
 -1        32 4.14269E-05-1.42851E-04 4.14269E-05 1.73107E-20-1.07937E-20 2.22079E-20
 -1        33 4.14269E-05-1.42851E-04 4.14269E-05 2.33203E-19 2.18904E-20 8.40069E-20
 -1        34 4.14269E-05-1.42851E-04 4.14269E-05 5.61175E-17-8.74451E-19 8.20149E-20
 -1        35 4.14269E-05-1.42851E-04 4.14269E-05 2.74228E-17 1.55355E-19 3.11667E-21
 -1        36 4.14269E-05-1.42851E-04 4.14269E-05 2.21412E-18-1.68745E-20-4.85090E-20
 -1        37 4.14269E-05-1.42851E-04 4.14269E-05-7.36560E-19 2.13078E-19-9.44041E-20
 -1        38 4.14269E-05-1.42851E-04 4.14269E-05-8.35318E-19 2.31644E-20-3.85323E-20
 -1        39 4.14269E-05-1.42851E-04 4.14269E-05-2.91464E-19-9.17174E-20 4.56005E-20
 -1        40 4.14269E-05-1.42851E-04 4.14269E-05-1.67461E-19-2.06568E-20 4.00681E-20
 -1        41 4.14269E-05-1.42851E-04 4.14269E-05-1.44422E-19-1.61877E-20 1.73080E-20
 -1        42 4.14269E-05-1.42851E-04 4.14269E-05 2.42411E-20-2.53350E-20 5.46031E-20
 -1        43 4.14269E-05-1.42851E-04 4.14269E-05 1.29029E-19-9.94991E-22 8.60480E-20
 -1        44 4.14269E-05-1.42851E-04 4.14269E-05 2.09592E-19 1.91713E-20-1.39494E-19
 -1        45 4.14269E-05-1.42851E-04 4.14269E-05 5.06069E-17 5.46918E-18-3.14361E-20
 -1        46 4.14269E-05-1.42851E-04 4.14269E-05 2.07656E-17-7.65187E-19 7.86020E-20
 -1        47 4.14269E-05-1.42851E-04 4.14269E-05 2.11773E-18-2.80885E-19-4.56094E-20
 -1        48 4.14269E-05-1.42851E-04 4.14269E-05-5.62311E-19 1.54039E-19-2.76507E-20
 -1        49 4.14269E-05-1.42851E-04 4.14269E-05-5.71731E-19-6.21318E-20 3.38333E-20
 -1        50 4.14269E-05-1.42851E-04 4.14269E-05-2.62811E-19 1.61101E-19-1.80761E-20
 -1        51 4.14269E-05-1.42851E-04 4.14269E-05-9.61631E-20-1.28419E-20 4.01781E-20
 -1        52 4.14269E-05-1.42851E-04 4.14269E-05-1.45424E-19 1.38143E-20 7.31418E-20
 -1        53 4.14269E-05-1.42851E-04 4.14269E-05-4.18093E-20-7.36154E-21 2.16227E-20
 -1        54 4.14269E-05-1.42851E-04 4.14269E-05 1.78878E-19-7.08344E-21 7.67617E-21
 -1        55 4.14269E-05-1.42851E-04 4.14269E-05 2.52749E-19-3.99037E-20 1.17834E-20
 -1        56 4.14269E-05-1.42851E-04 4.14269E-05 5.60437E-17-4.15130E-18 3.87865E-20
 -1        57 4.14269E-05-1.42851E-04 4.14269E-05 1.71979E-17-1.95389E-19 4.33738E-20
 -1        58 4.14269E-05-1.42851E-04 4.14269E-05 1.34452E-18 5.67458E-19 8.68223E-20
 -1        59 4.14269E-05-1.42851E-04 4.14269E-05-1.94112E-19-4.52277E-19 8.11832E-20
 -1        60 4.14269E-05-1.42851E-04 4.14269E-05-1.40861E-19-3.46547E-20-9.55052E-20
 -1        61 4.14269E-05-1.42851E-04 4.14269E-05-1.97766E-19 9.85758E-20-5.03114E-20
 -1        62 4.14269E-05-1.42851E-04 4.14269E-05-1.44448E-20-1.02579E-19 1.36312E-19
 -1        63 4.14269E-05-1.42851E-04 4.14269E-05-1.84765E-19-5.20499E-21 3.06377E-21
 -1        64 4.14269E-05-1.42851E-04 4.14269E-05 6.74079E-20-1.31849E-19-3.57394E-20
 -1        65 4.14269E-05-1.42851E-04 4.14269E-05 1.24671E-19 1.51280E-20 8.98973E-20
 -1        66 4.14269E-05-1.42851E-04 4.14269E-05 2.91797E-19-1.30748E-19-4.03163E-20
 -3
    1PSTEP                         4           1           1          
  100CL  101 1.000000000          66                     0    1           1
 -4  ERROR       1    1
 -5  STR(%)      1    1    0    0
 -1         1 3.94921E-11
 -1         2 3.94921E-11
 -1         3 4.50887E-12
 -1         4 1.02634E-12
 -1         5 1.66670E-13
 -1         6 2.36847E-13
 -1         7 2.36847E-13
 -1         8 1.92987E-13
 -1         9 1.31582E-13
 -1        10 1.31582E-13
 -1        11 1.31582E-13
 -1        12 3.94921E-11
 -1        13 3.94921E-11
 -1        14 4.50887E-12
 -1        15 1.37722E-12
 -1        16 3.85973E-13
 -1        17 2.63164E-13
 -1        18 2.63164E-13
 -1        19 1.92987E-13
 -1        20 1.92987E-13
 -1        21 3.07024E-13
 -1        22 3.07024E-13
 -1        23 3.64394E-11
 -1        24 3.64394E-11
 -1        25 5.71942E-12
 -1        26 1.37722E-12
 -1        27 4.56150E-13
 -1        28 2.63164E-13
 -1        29 2.63164E-13
 -1        30 1.92987E-13
 -1        31 2.28075E-13
 -1        32 3.42113E-13
 -1        33 3.42113E-13
 -1        34 1.23862E-11
 -1        35 1.23862E-11
 -1        36 5.71942E-12
 -1        37 7.36858E-13
 -1        38 5.08783E-13
 -1        39 5.08783E-13
 -1        40 2.19303E-13
 -1        41 2.54392E-13
 -1        42 2.54392E-13
 -1        43 3.42113E-13
 -1        44 3.42113E-13
 -1        45 1.37547E-11
 -1        46 1.37547E-11
 -1        47 4.95625E-12
 -1        48 1.22810E-12
 -1        49 6.49137E-13
 -1        50 5.08783E-13
 -1        51 2.71936E-13
 -1        52 2.54392E-13
 -1        53 2.54392E-13
 -1        54 2.45619E-13
 -1        55 1.22810E-13
 -1        56 1.37547E-11
 -1        57 1.37547E-11
 -1        58 1.38600E-12
 -1        59 1.22810E-12
 -1        60 6.49137E-13
 -1        61 2.71936E-13
 -1        62 2.71936E-13
 -1        63 1.75442E-13
 -1        64 1.22810E-13
 -1        65 1.14038E-13
 -1        66 1.05265E-13
 -3
 9999
